                               Psi4 1.4 release

  ==> Input File <==

--------------------------------------------------------------------------
molecule ch3br {
5
6323
Br        -0.96740        0.00000        0.00000
C          0.96740        0.00000        0.00000
H          1.30600       -1.03390        0.08050
H          1.30600        0.44720       -0.93570
H          1.30600        0.58680        0.85520
}

scf_e, scf_wfn = energy("B3LYP/cc-pVDZ", return_wfn=True)

HOMO = scf_wfn.epsilon_a_subset("AO", "ALL").np[scf_wfn.nalpha()]
LUMO = scf_wfn.epsilon_a_subset("AO", "ALL").np[scf_wfn.nalpha() + 1]

print(scf_wfn.nalpha())

set cubeprop_tasks ["orbitals"]
set cubeprop_orbitals [22, 23, -22, -23]

cubeprop(scf_wfn)
--------------------------------------------------------------------------

    Molecular point group: c1

    Geometry (in Angstrom), charge = 0, multiplicity = 1:

       Center              X                  Y                   Z               Mass
    ------------   -----------------  -----------------  -----------------  -----------------
         BR          -0.320317092262    -0.000001072818     0.000000000000    78.918337600000
         C            1.614482907738    -0.000001072818     0.000000000000    12.000000000000
         H            1.953082907738    -1.033901072818     0.080500000000     1.007825032230
         H            1.953082907738     0.447198927182    -0.935700000000     1.007825032230
         H            1.953082907738     0.586798927182     0.855200000000     1.007825032230

  Charge       = 0
  Multiplicity = 1
  Basis Set: CC-PVDZ
    Blend: CC-PVDZ
  Basis Set: (CC-PVDZ AUX)
    Blend: CC-PVDZ-JKFIT

    Orbital Energies [Eh]
    ---------------------

    Doubly Occupied:

       1A   -482.871991     2A    -62.523606     3A    -56.340729
       4A    -56.337153     5A    -56.337153     6A    -10.239613
       7A     -8.701118     8A     -6.531592     9A     -6.518235
      10A     -6.518235    11A     -2.615035    12A     -2.611026
      13A     -2.611026    14A     -2.600475    15A     -2.600472
      16A     -0.807259    17A     -0.670140    18A     -0.444425
      19A     -0.444412    20A     -0.386867    21A     -0.274448
      22A     -0.274446

  @DF-RKS Final Energy: -2613.93242908829143

   => Energetics <=

    Nuclear Repulsion Energy =             89.2870949158060085
    One-Electron Energy =               -3812.6256184938110891
    Two-Electron Energy =                1188.1102162560434863
    DFT Exchange-Correlation Energy =     -78.7041217663300898
    Empirical Dispersion Energy =           0.0000000000000000
    VV10 Nonlocal Energy =                  0.0000000000000000
    Total Energy =                      -2613.9324290882914283

  Dipole Moment: [D]
     X:     1.7915      Y:    -0.0000      Z:    -0.0000     Total:     1.7915

  Basis Set: CC-PVDZ
    Blend: CC-PVDZ
*** Psi4 exiting successfully. Buy a developer a beer!
