                               Psi4 1.4 release

  ==> Input File <==

--------------------------------------------------------------------------
molecule h2o {
0 1
O
H 1 1.0
H 1 1.0 2 104.5
}

set basis cc-pvdz
set scf_type df
set freeze_core True
set cubeprop_tasks ['orbitals']
set cubeprop_orbitals [5,6,-5,-6]

E, wfn = energy('scf', return_wfn=True)
cubeprop(wfn)
--------------------------------------------------------------------------

    Molecular point group: c2v

    Geometry (in Angstrom), charge = 0, multiplicity = 1:

       Center              X                  Y                   Z               Mass
    ------------   -----------------  -----------------  -----------------  -----------------
         O            0.000000000000     0.000000000000    -0.068516219320    15.994914619570
         H            0.000000000000    -0.790689573744     0.543701060715     1.007825032230
         H            0.000000000000     0.790689573744     0.543701060715     1.007825032230

  Charge       = 0
  Multiplicity = 1
  Basis Set: CC-PVDZ
    Blend: CC-PVDZ
  Basis Set: (CC-PVDZ AUX)
    Blend: CC-PVDZ-JKFIT

    Orbital Energies [Eh]
    ---------------------

    Doubly Occupied:

       1A1   -20.557850     2A1    -1.316186     1B2    -0.677076
       3A1    -0.558723     1B1    -0.490375

  @DF-RHF Final Energy:   -76.02139746459142

   => Energetics <=

    Nuclear Repulsion Energy =              8.8014655645673745
    One-Electron Energy =                -122.4453039752608703
    Two-Electron Energy =                  37.6224409461020741
    Total Energy =                        -76.0213974645914163

  Dipole Moment: [D]
     X:     0.0000      Y:     0.0000      Z:     2.0958     Total:     2.0958

  Basis Set: CC-PVDZ
    Blend: CC-PVDZ
*** Psi4 exiting successfully. Buy a developer a beer!
