                               Psi4 1.4 release

  ==> Input File <==

--------------------------------------------------------------------------
molecule oh {
  pubchem:hydroxide
}

scf_e, scf_wfn = energy("B3LYP/cc-pVDZ", return_wfn=True)

HOMO = scf_wfn.epsilon_a_subset("AO", "ALL").np[scf_wfn.nalpha()]
LUMO = scf_wfn.epsilon_a_subset("AO", "ALL").np[scf_wfn.nalpha() + 1]

print(scf_wfn.nalpha())

na = scf_wfn.nalpha()

set cubeprop_tasks ["orbitals"]
set cubeprop_orbitals [5, 6, -5, -6]

cubeprop(scf_wfn)

--------------------------------------------------------------------------

    Molecular point group: c2v

    Geometry (in Angstrom), charge = -1, multiplicity = 1:

       Center              X                  Y                   Z               Mass
    ------------   -----------------  -----------------  -----------------  -----------------
         O           -0.000000000000     0.000000000000     0.057482520456    15.994914619570
         H            0.000000000000    -0.000000000000    -0.912289313534     1.007825032230

  Charge       = -1
  Multiplicity = 1
  Basis Set: CC-PVDZ
    Blend: CC-PVDZ
  Basis Set: (CC-PVDZ AUX)
    Blend: CC-PVDZ-JKFIT

    Orbital Energies [Eh]
    ---------------------

    Doubly Occupied:

       1A1   -18.640572     2A1    -0.473518     3A1     0.022817
       1B1     0.172354     1B2     0.172354

  @DF-RKS Final Energy:   -75.72105110367366

   => Energetics <=

    Nuclear Repulsion Energy =              4.3653749644830295
    One-Electron Energy =                -117.2855357365609166
    Two-Electron Energy =                  44.7127516469853248
    DFT Exchange-Correlation Energy =      -7.5136419785810977
    Empirical Dispersion Energy =           0.0000000000000000
    VV10 Nonlocal Energy =                  0.0000000000000000
    Total Energy =                        -75.7210511036736591

  Dipole Moment: [D]
     X:     0.0000      Y:     0.0000      Z:    -0.8920     Total:     0.8920

  Basis Set: CC-PVDZ
    Blend: CC-PVDZ
*** Psi4 exiting successfully. Buy a developer a beer!
